# add your comment ... 
 
124 atoms
1 atom types
 
     0.0000000000000000     11.3306800000000027   xlo xhi
     0.0000000000000000     11.3306800000000027   ylo yhi
     0.0000000000000000     11.3306800000000027   zlo zhi
     0.0000000000000000      0.0000000000000000      0.0000000000000000   xy xz yz
 
Atoms
 
       1     1        4.249005000000       1.416335000000       4.249005000000
       2     1        0.000000000000       0.000000000000       0.000000000000
       3     1        0.000000000000       0.000000000000       2.832670000000
       4     1        0.000000000000       0.000000000000       5.665340000000
       5     1        1.416335000000       1.416335000000       7.081675000000
       6     1        0.000000000000       0.000000000000       8.498010000000
       7     1        1.416335000000       1.416335000000       9.914345000000
       8     1        0.000000000000       2.832670000000       0.000000000000
       9     1        1.416335000000       4.249005000000       1.416335000000
      10     1        0.000000000000       2.832670000000       2.832670000000
      11     1        1.416335000000       4.249005000000       4.249005000000
      12     1        0.000000000000       2.832670000000       5.665340000000
      13     1        1.416335000000       4.249005000000       7.081675000000
      14     1        0.000000000000       2.832670000000       8.498010000000
      15     1        1.416335000000       4.249005000000       9.914345000000
      16     1        0.000000000000       5.665340000000       0.000000000000
      17     1        1.416335000000       7.081675000000       1.416335000000
      18     1        0.000000000000       5.665340000000       2.832670000000
      19     1        1.416335000000       7.081675000000       4.249005000000
      20     1        0.000000000000       5.665340000000       5.665340000000
      21     1        1.416335000000       7.081675000000       7.081675000000
      22     1        0.000000000000       5.665340000000       8.498010000000
      23     1        1.416335000000       7.081675000000       9.914345000000
      24     1        0.000000000000       8.498010000000       0.000000000000
      25     1        1.416335000000       9.914345000000       1.416335000000
      26     1        0.000000000000       8.498010000000       2.832670000000
      27     1        1.416335000000       9.914345000000       4.249005000000
      28     1        0.000000000000       8.498010000000       5.665340000000
      29     1        1.416335000000       9.914345000000       7.081675000000
      30     1        0.000000000000       8.498010000000       8.498010000000
      31     1        1.416335000000       9.914345000000       9.914345000000
      32     1        2.832670000000       0.000000000000       0.000000000000
      33     1        4.249005000000       1.416335000000       1.416335000000
      34     1        2.832670000000       0.000000000000       5.665340000000
      35     1        4.249005000000       1.416335000000       7.081675000000
      36     1        2.832670000000       0.000000000000       8.498010000000
      37     1        4.249005000000       1.416335000000       9.914345000000
      38     1        2.832670000000       2.832670000000       0.000000000000
      39     1        4.249005000000       4.249005000000       1.416335000000
      40     1        4.249005000000       4.249005000000       4.249005000000
      41     1        2.832670000000       2.832670000000       5.665340000000
      42     1        4.249005000000       4.249005000000       7.081675000000
      43     1        2.832670000000       2.832670000000       8.498010000000
      44     1        4.249005000000       4.249005000000       9.914345000000
      45     1        2.832670000000       5.665340000000       0.000000000000
      46     1        4.249005000000       7.081675000000       1.416335000000
      47     1        2.832670000000       5.665340000000       2.832670000000
      48     1        4.249005000000       7.081675000000       4.249005000000
      49     1        2.832670000000       5.665340000000       5.665340000000
      50     1        4.249005000000       7.081675000000       7.081675000000
      51     1        2.832670000000       5.665340000000       8.498010000000
      52     1        4.249005000000       7.081675000000       9.914345000000
      53     1        2.832670000000       8.498010000000       0.000000000000
      54     1        4.249005000000       9.914345000000       1.416335000000
      55     1        2.832670000000       8.498010000000       2.832670000000
      56     1        4.249005000000       9.914345000000       4.249005000000
      57     1        2.832670000000       8.498010000000       5.665340000000
      58     1        4.249005000000       9.914345000000       7.081675000000
      59     1        2.832670000000       8.498010000000       8.498010000000
      60     1        4.249005000000       9.914345000000       9.914345000000
      61     1        5.665340000000       0.000000000000       0.000000000000
      62     1        7.081675000000       1.416335000000       1.416335000000
      63     1        5.665340000000       0.000000000000       2.832670000000
      64     1        7.081675000000       1.416335000000       4.249005000000
      65     1        5.665340000000       0.000000000000       5.665340000000
      66     1        7.081675000000       1.416335000000       7.081675000000
      67     1        5.665340000000       0.000000000000       8.498010000000
      68     1        7.081675000000       1.416335000000       9.914345000000
      69     1        5.665340000000       2.832670000000       0.000000000000
      70     1        7.081675000000       4.249005000000       1.416335000000
      71     1        5.665340000000       2.832670000000       2.832670000000
      72     1        7.081675000000       4.249005000000       4.249005000000
      73     1        5.665340000000       2.832670000000       5.665340000000
      74     1        7.081675000000       4.249005000000       7.081675000000
      75     1        5.665340000000       2.832670000000       8.498010000000
      76     1        7.081675000000       4.249005000000       9.914345000000
      77     1        5.665340000000       5.665340000000       0.000000000000
      78     1        7.081675000000       7.081675000000       1.416335000000
      79     1        5.665340000000       5.665340000000       2.832670000000
      80     1        7.081675000000       7.081675000000       4.249005000000
      81     1        5.665340000000       5.665340000000       5.665340000000
      82     1        7.081675000000       7.081675000000       7.081675000000
      83     1        5.665340000000       5.665340000000       8.498010000000
      84     1        7.081675000000       7.081675000000       9.914345000000
      85     1        5.665340000000       8.498010000000       0.000000000000
      86     1        7.081675000000       9.914345000000       1.416335000000
      87     1        5.665340000000       8.498010000000       2.832670000000
      88     1        7.081675000000       9.914345000000       4.249005000000
      89     1        5.665340000000       8.498010000000       5.665340000000
      90     1        7.081675000000       9.914345000000       7.081675000000
      91     1        5.665340000000       8.498010000000       8.498010000000
      92     1        7.081675000000       9.914345000000       9.914345000000
      93     1        8.498010000000       0.000000000000       0.000000000000
      94     1        9.914345000000       1.416335000000       1.416335000000
      95     1        8.498010000000       0.000000000000       2.832670000000
      96     1        9.914345000000       1.416335000000       4.249005000000
      97     1        8.498010000000       0.000000000000       5.665340000000
      98     1        9.914345000000       1.416335000000       7.081675000000
      99     1        8.498010000000       0.000000000000       8.498010000000
     100     1        9.914345000000       1.416335000000       9.914345000000
     101     1        8.498010000000       2.832670000000       0.000000000000
     102     1        9.914345000000       4.249005000000       1.416335000000
     103     1        8.498010000000       2.832670000000       2.832670000000
     104     1        9.914345000000       4.249005000000       4.249005000000
     105     1        8.498010000000       2.832670000000       5.665340000000
     106     1        9.914345000000       4.249005000000       7.081675000000
     107     1        8.498010000000       2.832670000000       8.498010000000
     108     1        9.914345000000       4.249005000000       9.914345000000
     109     1        8.498010000000       5.665340000000       0.000000000000
     110     1        9.914345000000       7.081675000000       1.416335000000
     111     1        8.498010000000       5.665340000000       2.832670000000
     112     1        9.914345000000       7.081675000000       4.249005000000
     113     1        8.498010000000       5.665340000000       5.665340000000
     114     1        9.914345000000       7.081675000000       7.081675000000
     115     1        8.498010000000       5.665340000000       8.498010000000
     116     1        9.914345000000       7.081675000000       9.914345000000
     117     1        8.498010000000       8.498010000000       0.000000000000
     118     1        9.914345000000       9.914345000000       1.416335000000
     119     1        8.498010000000       8.498010000000       2.832670000000
     120     1        9.914345000000       9.914345000000       4.249005000000
     121     1        8.498010000000       8.498010000000       5.665340000000
     122     1        9.914345000000       9.914345000000       7.081675000000
     123     1        8.498010000000       8.498010000000       8.498010000000
     124     1        9.914345000000       9.914345000000       9.914345000000
